{"4757": {"H Bond Acceptors": "2", "H Bond Donors": "0", "LogP": "4.63", "Num. Rotatable Bonds": "4", "Lipinski Rule of 5": "0", "Polar Surface Area": "32 \u212b2", "ChemSpider ID": "4757", "SMILES": "CN(C)CCCN1c2ccccc2Sc3c1cccc3", "Std InChI": "ZGUGWUXLJSTTMAUHFFFAOYSA-N", "InChI string": "InChI=1S/C17H20N2S/c1-18(2)12-7-13-19-14-8-3-5-10-16(14)20-17-11-6-4-9-15(17)19/h3-6,8-11H,7,12-13H2,1-2H3", "Common Name": "promazine", "Systematic Name": "N,N-Dimethyl-3-(10H-phenothiazin-10-yl)-1-propanamine", "Molecular Formula": "C17H20N2S", "Average Mass (Da)": "284.419", "Density": "1.1\u00b10.1 g/cm3", "Boiling Point": "412.7\u00b134.0 \u00b0C at 760 mmHg", "Enthalpy of Vapourisation": "66.5\u00b13.0 kJ/mol"}}